LAMMPS data file via write_data, version 2 Aug 2023, timestep = 1000000, units = metal

2592 atoms
3 atom types

-20.126099164126185 20.126099164126185 xlo xhi
-20.14934522462478 20.14934522462478 ylo yhi
-20.135402985744655 20.135402985744655 zlo zhi

Masses

1 6.941
2 35.453
3 26.9815

Atoms # atomic

2119 2 -19.424763488919403 -17.575926501596975 -19.669140782211457 1 0 1
2407 3 -17.37540634299583 -16.80873796043148 -19.39253350836007 1 0 1
1740 2 -16.219236836869616 -17.87741013507395 -17.92541091960869 1 0 1
266 1 -15.708759349290037 -19.291598427636504 -19.735507706224798 0 1 1
1649 2 -12.979452761594061 -17.370198895120474 -19.94930735524549 1 1 1
134 1 -12.155739053429821 -19.871146955887433 -18.295493532517394 0 1 0
572 2 -9.777460036346994 -18.12187018640574 -17.41280742970453 0 1 0
2427 3 -9.289354837045918 -18.532323757049944 -19.373888321845303 1 1 0
1688 2 -7.257728133058676 -19.651022580248885 -19.741340754929382 1 1 0
813 2 -5.71961517612417 -17.531784107118742 -17.460293726267103 1 1 0
2454 3 -4.49807139280175 -17.273959098944694 -19.106546841074298 1 1 0
282 1 -1.5762997049762777 -18.364480107311437 -18.637940892450313 0 0 0
1257 2 -17.531955644773543 -14.817462090433015 -18.647097483593285 1 0 1
339 1 -12.184292161950497 -15.632982720796102 -18.808342938921395 1 0 0
2239 3 -7.534599364351125 -13.499370048307759 -17.45672064961256 0 1 0
1215 2 -8.029892387067648 -13.45123122813464 -19.575944634968142 0 1 1
1886 2 -5.39596515618362 -13.820435102442909 -17.088223089453717 0 1 1
1684 2 -2.783198959504577 -16.091912263671922 -18.63683038249825 1 1 0
757 2 -19.022349677182962 -11.429495826681935 -18.691825159235282 1 1 0
150 1 -16.875544273325204 -10.437806355979413 -18.325307492303537 1 1 1
560 2 -13.474480175416518 -13.407808538572658 -17.942419272669028 1 0 0
827 2 -11.497688584619594 -11.040536459420567 -19.213848950209997 0 1 1
362 1 -9.798511995264455 -10.465799858258348 -17.41016718770836 0 0 0
1187 2 -5.026197450426646 -10.977488442625132 -19.423072323401513 0 0 1
2537 3 -3.0791698050988026 -10.964031405448518 -18.561017220089877 0 0 1
796 2 -2.0440711600163204 -12.800915666821533 -18.904153358628882 0 0 1
2288 3 -19.553885962297198 -9.473257720733054 -18.172458738154766 1 0 0
486 2 -17.745648626884886 -8.344956513095374 -17.82522623678715 1 0 0
1492 2 -14.403259954830439 -8.266182762053353 -19.538469296138054 1 0 1
1407 2 -11.3071712192227 -7.227491451341198 -17.686447253262852 1 0 0
83 1 -12.355665967680356 -6.754400163709239 -19.565145137754588 0 0 1
767 2 -8.301923466976792 -9.814198747842084 -19.35981632920779 0 0 1
298 1 -7.547276324346046 -7.463096317175464 -19.170263631552746 0 0 0
640 2 -4.255604952520155 -7.834421488337693 -17.34561359696781 1 0 1
1589 2 -1.5518928785339936 -9.43751063209952 -19.05590418352471 0 0 1
371 1 -1.2858498321934286 -7.4053352139710205 -17.737463837923244 0 0 1
1641 2 -18.66161853926755 -16.947881362318544 -15.39923697521774 1 1 0
2166 3 -17.799321980513525 -17.27412243913471 -13.530877012973809 1 0 0
404 1 -14.401142188977285 -17.110017784097508 -15.31836692571048 0 0 1
877 2 -15.722871515293395 -18.28194292656314 -13.580498820685424 1 1 1
1053 2 -10.367942428280344 -17.288453245997914 -14.183848289223207 0 1 1
1801 2 -12.994713503869463 -19.379702030132936 -15.691811842088537 0 1 0
498 2 -5.201877889116287 -19.621475592036774 -14.800796113844047 0 0 0
1765 2 -2.068271561572024 -18.800766217798937 -16.216377748747732 0 1 0
257 1 -18.571683963970873 -14.844124005906057 -16.56105945215845 0 0 0
1517 2 -15.345449225140404 -14.985012075444288 -15.361082385688887 1 1 0
2558 3 -13.328166383404135 -14.43285416177064 -16.01192923637397 1 1 0
1247 2 -12.331939053805126 -16.257084626880918 -16.493843505759813 1 0 0
644 2 -12.501581335678885 -13.50591014076192 -14.328088060552309 1 1 0
1491 2 -8.637746096693293 -15.063141763203626 -16.54448278474384 0 1 0
591 2 -6.512524808581777 -16.69106818208708 -14.411463987013825 0 0 0
885 2 -2.059852906046406 -14.409963816290078 -15.317869147627004 0 0 1
2472 3 -0.14315538844676884 -13.964241043211498 -16.159280995668368 0 0 1
1829 2 -18.38971515119295 -12.907096231174352 -15.196914513973569 0 0 0
2439 3 -16.85241746406172 -11.550750009817627 -14.543340863103195 0 0 0
503 2 -15.851465807637165 -11.433977193687495 -16.558761066967993 0 0 0
1932 2 -7.86871004533187 -11.541545521376966 -16.379391962747594 0 1 0
1439 2 -5.637102506452078 -13.335021116884063 -13.873484606840934 0 0 0
340 1 -5.5569544419307535 -11.884282157628641 -15.800528984080511 0 0 1
2133 2 -3.38558713385015 -10.912001081972637 -16.353479257802515 0 0 1
1963 2 -17.52982885006037 -9.587362370442305 -13.994475197322789 1 0 1
100 1 -19.965294277455147 -9.654444237795081 -13.494445564687435 1 0 0
1670 2 -14.374953334573638 -7.7842380971807446 -16.323881718019393 1 0 0
761 2 -11.453039605753101 -9.879035309736055 -15.607043228077515 1 0 0
2284 3 -12.254573207909084 -7.95039375292471 -15.935600765450621 1 0 1
1448 2 -8.078221114678794 -7.51815825699157 -16.729934255795747 0 0 0
2434 3 -7.15518737590432 -7.26024506624046 -14.852241176631232 0 0 1
448 2 -5.923036938393884 -8.793735480340207 -14.066159959288871 0 0 1
2283 3 -0.8902758820816459 -7.075502882103434 -14.471448315387526 0 0 0
567 2 -0.39177988303247696 -8.726400016386563 -15.837594954123015 0 0 1
1919 2 -19.269464370245807 -18.56367690279664 -12.732054849043545 1 0 0
78 1 -12.7707999860003 -17.60270355130071 -10.686716383380451 0 0 0
1020 2 -11.69176236531239 -19.397831174897085 -12.062039851717874 0 1 1
2551 3 -9.916358682180677 -18.277404894978208 -12.333417031874145 0 1 1
998 2 -7.970107786330564 -19.205544842217083 -12.170795807351604 0 1 1
1143 2 -10.052993384647504 -16.824132702548017 -10.714980765911356 0 1 1
99 1 -6.308243673566132 -17.504516700899078 -12.352202583269406 1 0 1
1942 2 -4.903311997258676 -18.315845478250687 -10.731419682914831 0 0 0
2541 3 -2.829280078478682 -18.75785446018081 -11.061507397190008 0 0 0
1080 2 -1.8246805774377493 -17.726204218665398 -12.604866736682844 0 0 0
1922 2 -17.369693675215245 -15.325095196987753 -12.419483633048866 1 0 0
419 1 -15.274559366109722 -14.448471896596693 -12.953141679183743 0 1 1
1898 2 -13.435384304380236 -16.252944624653832 -12.524980231854745 0 0 1
741 2 -15.226800571658872 -14.091809355093073 -10.438086898276202 0 0 0
319 1 -11.385631200713528 -15.555698223412334 -12.789319760693104 0 1 1
818 2 -11.680302980779238 -13.810246814419406 -10.462588055016367 0 0 0
1601 2 -9.042482983676468 -14.154081904101227 -13.413152444261653 0 0 1
451 2 -6.723351052846733 -15.419045495857185 -11.196708095752015 0 1 1
2167 3 -7.047862944974985 -14.91091550568165 -13.246518509309427 0 0 1
1685 2 -1.0300830893361774 -15.008149740642871 -10.660209265889034 0 0 0
94 1 -1.1839369960832633 -14.160008714606231 -13.000403141837229 0 1 0
786 2 -19.231618735661986 -12.41528709724622 -11.498213951835806 0 0 0
2055 2 -15.525539804587611 -11.964928370455025 -12.882951230669986 0 0 0
2125 2 -12.40710590512097 -10.533418296025122 -12.289995764768152 0 0 0
2128 2 -8.985512241350287 -10.349969928014692 -13.161535618253877 0 0 0
2278 3 -8.38852249574627 -10.335711874458207 -11.071762005688818 0 1 0
2027 2 -3.4225509675652646 -12.326178498298525 -10.643927428287151 0 0 0
1717 2 -6.466052608850361 -11.248666466379065 -11.21052629065251 0 0 0
1891 2 -1.058320741398117 -11.600953000882491 -13.222160786869383 0 1 1
1996 2 -18.40167636826187 -9.071180295617376 -10.656245096658404 0 0 0
1809 2 -15.752269100020207 -6.842962075114027 -13.319104345604822 1 0 1
709 2 -14.920359659857587 -8.773273665437742 -10.325197809801677 0 0 0
351 1 -10.954270231680256 -8.911140887053115 -13.067445606042131 0 0 1
1521 2 -11.474408518074187 -7.574763086409765 -11.035964469712075 0 0 0
2480 3 -12.858772522679578 -9.118412371334022 -10.609264274045477 0 0 0
1966 2 -7.9368599520940295 -8.320073914522407 -10.355765413600862 0 1 0
615 2 -8.83403969673878 -6.75057616188614 -13.401360371575478 0 0 1
361 1 -5.9203191405366615 -8.308424465423412 -11.569519176393372 1 0 0
892 2 -4.120878840173201 -9.120447587498802 -10.252198675203358 0 0 0
1127 2 -2.2739390762315512 -7.630076077272045 -12.935904126749087 0 0 0
804 2 -0.06458811762379896 -9.233298700180601 -10.86981623532676 0 1 1
712 2 -17.19704778731052 -17.322367080627558 -9.93609767095808 1 1 0
547 2 -17.437537411536567 -19.647326761015428 -7.36150505905036 1 0 0
1648 2 -14.516986393606803 -19.6285691798161 -9.403954008908897 0 1 0
2563 3 -16.716302492114878 -19.358524447299544 -9.54080075949535 1 0 0
1240 2 -11.139611173645067 -19.640938749715776 -8.445877010987013 0 1 0
816 2 -7.924407786371276 -18.335610883390313 -8.557224568265934 0 0 1
2203 3 -6.639019230757382 -19.9352270701157 -7.90941684923343 0 0 1
1016 2 -4.631473374574501 -19.246826651204056 -7.271551412240951 0 1 0
1804 2 -1.8306654522534809 -18.485776070354255 -9.184266444042459 0 0 0
208 1 -18.279120797854947 -14.538825408144326 -9.969283932052244 0 0 0
524 2 -13.58340918680733 -16.416981533794782 -8.808460024013064 0 1 0
2520 3 -13.381397788192332 -14.31516387773736 -9.23929252605848 0 0 0
1751 2 -10.349836306317156 -15.824016756365275 -7.71140502538135 0 0 0
681 2 -3.866376410829084 -14.92190134551062 -8.600102145815853 0 0 0
2473 3 -2.3200591749519206 -13.706483150457746 -9.437513915470374 0 0 0
2460 3 -18.832331580350726 -10.974462477036083 -9.88299527824016 0 0 0
1175 2 -17.337948436657108 -12.026432575007156 -8.654232138933217 0 0 0
988 2 -13.273735809012019 -13.026071767875914 -7.3752051367776 1 0 0
1706 2 -7.232338838859651 -13.295613512909433 -8.078727328478005 0 0 0
1457 2 -9.397383210521776 -11.53840416591199 -9.644733624752346 0 1 0
165 1 -5.502372416350801 -13.402791288269075 -9.843769900451349 1 1 -1
2358 3 -6.464458171610011 -11.561881139410952 -6.788322749045467 0 0 0
431 1 -0.6817601041796931 -10.20200205905661 -8.674047809508888 -1 0 1
1535 2 -1.1939493179931628 -12.45048654815297 -7.957448892574757 0 0 0
1851 2 -16.44057415920369 -6.78601357178457 -8.114021774899458 0 0 0
50 1 -15.240453787389281 -8.822958504723127 -7.74404471452925 0 0 1
788 2 -12.444411560350567 -9.946553263506797 -8.568644187513742 0 0 0
548 2 -10.281014170070176 -7.020722708547433 -8.11457077633717 0 0 0
186 1 -9.746077832230215 -10.001757686622236 -7.682018305982992 1 1 -1
1130 2 -7.212000862758387 -9.615990057075262 -7.449552597452954 0 0 0
2264 3 -3.5380842817925986 -7.607552108297173 -8.938343185483982 0 0 0
899 2 -5.267243566490201 -6.717329755678237 -8.054492662766599 0 0 0
1574 2 -2.257004644853954 -8.61867735277373 -7.407552631667672 0 0 0
447 2 -18.530209173975514 -19.79737757256574 -4.092558926588735 1 1 0
1000 2 -19.236491812291373 -17.13726809136219 -6.440935826716985 0 0 0
1008 2 -15.62111806355686 -17.070749736515978 -5.079779978384855 1 0 0
203 1 -11.2925716020429 -17.094453954122894 -3.5639730917862327 1 0 0
1501 2 -10.206053032456651 -18.59421584799156 -4.8347115282291355 1 0 0
12 1 -8.973865381877955 -17.60852639090294 -6.500445196855053 0 1 0
1194 2 -6.724425963273604 -18.04266546640453 -4.488472333268851 0 1 0
173 1 -3.7386135025424383 -18.842467276794217 -5.036060104611342 0 0 0
1707 2 -2.163764246731956 -17.22950594125342 -5.931341028217474 0 0 1
2575 3 -19.50130137133862 -15.145290828442302 -5.942490707178603 0 0 0
717 2 -17.80589476959843 -13.808686312400248 -5.545073596313718 0 0 0
1859 2 -12.153908873893252 -15.169238413519471 -4.784353086445792 0 0 1
2373 3 -10.324672791675626 -14.62316355046053 -5.872683645325949 0 0 1
1975 2 -8.712990777831285 -15.29696338000552 -4.803264179523914 0 0 0
1054 2 -3.8890373355563588 -14.381265917404598 -4.284335068716417 0 1 0
2364 3 -0.2670833153102212 -16.404656342440305 -5.41366445660793 0 0 0
1945 2 -0.8158183140958741 -14.479596884615939 -4.462272749796398 0 0 0
110 1 -18.913711423523708 -12.03048642844791 -6.667618002356806 1 0 0
533 2 -14.9153490408897 -11.188693640548626 -4.441432829007644 1 0 0
1605 2 -10.10630624907214 -12.522843506028003 -6.2362630424605845 0 0 1
268 1 -9.266699320274327 -11.507642566006561 -4.16407718302025 0 0 0
905 2 -6.962385238226453 -12.166208341192002 -4.719310052331542 0 0 0
834 2 -4.288174693037974 -11.499576388346552 -6.549754873936156 0 0 0
214 1 -4.37833110305973 -11.809771583060131 -3.7770950835916985 0 1 0
478 2 -0.6149657458265735 -11.104394382248765 -4.959085832047567 0 1 0
1177 2 -17.782907913673004 -9.558858782741522 -5.743432412079372 1 1 0
2578 3 -16.518433554129192 -9.962850910497782 -3.9623293568244917 1 0 0
1816 2 -14.342042396545166 -7.78264177248864 -5.5896813983211535 0 0 0
1954 2 -10.740480195639169 -9.121474548466894 -5.393401357415399 0 0 0
2507 3 -10.257503900785089 -7.100462549069571 -5.989797823167986 0 0 1
1526 2 -8.194209625752631 -6.726711574993917 -5.453627609589159 0 0 1
779 2 -3.1301305884086363 -8.721821298749987 -3.952057759992114 0 0 0
64 1 -17.529848896769437 -19.09778465518494 -0.042935511007829975 0 1 0
1890 2 -19.626189540102747 -18.60328643764865 -1.02144262427844 1 1 0
435 2 -16.042988787934714 -18.399816523790516 -1.614925271122348 1 0 0
2413 3 -11.13048966885045 -18.619691418952318 -0.6996339631685481 0 1 0
643 2 -12.762962555006885 -18.62718337692908 -2.141899833173088 0 1 0
1117 2 -9.60673332206341 -17.281002613171562 -1.3721234335535464 0 1 0
2267 3 -6.980334537553932 -19.726006617313352 -3.1409895879512066 0 1 0
2109 2 -6.8679533961994785 -19.099402071234856 -1.1358218968385878 0 1 0
47 1 -4.6614418769249895 -18.473237156429732 -0.5908060986205205 0 1 0
1239 2 -3.7171748153805058 -17.80471123033283 -2.88677750230773 0 1 0
2584 3 -0.8008545559842767 -19.875815157601554 -1.116353583670589 0 1 0
141 1 -19.230008342761057 -16.095160073501024 -0.6773775973095625 1 0 1
890 2 -18.3006472283628 -15.866420391211546 -2.867938203734765 1 1 1
1960 2 -17.4202746074435 -13.886926885774324 -0.27920990833735887 1 1 0
2590 3 -16.23145707406802 -16.77060565989044 -2.976113429570824 1 0 0
535 2 -15.092417067021293 -15.06586840956836 -2.34146626863571 1 0 0
1911 2 -12.003278414308044 -14.558164892558924 -0.7163364915754514 1 0 0
1555 2 -8.994599335900435 -13.433236314335543 -2.044459272581888 1 1 0
2352 3 -4.220439108461357 -15.620306204672453 -2.6862859385663254 0 1 0
1373 2 -6.298308353229927 -15.453997049419463 -2.0906739221513297 0 1 1
239 1 -0.6884015944999883 -13.779968287973105 -2.001882627701992 0 1 0
1513 2 -3.034091923226169 -14.839257116046191 -1.0670935361865115 0 0 1
2139 2 -17.65854128728133 -11.420679000537966 -2.6391676690452153 1 0 0
1372 2 -14.924930850048668 -11.409554478443004 -0.2497429526107268 0 0 0
376 1 -15.657643514611197 -12.423357600459841 -2.189622337545875 1 1 0
1106 2 -11.879674612650694 -11.902864718287294 -2.9786906147238734 1 0 0
2338 3 -10.884168282986632 -12.752958410294369 -1.337492756360117 1 1 0
2067 2 -6.117654236234509 -11.481560440332439 -1.2705294429478835 0 1 0
1965 2 -2.453803275955684 -11.609260892311022 -2.194185303432588 0 0 0
370 1 -17.388052084362332 -9.332533053049229 -0.6014000374431856 0 0 0
614 2 -16.39267110845169 -8.154577959245811 -2.962797295938974 1 0 0
2225 3 -14.043307306651885 -9.399753357720082 -0.0944412862442642 0 0 0
471 2 -12.708232372411656 -8.668073123685046 -1.6740659319297602 0 0 0
2039 2 -10.094757312532597 -6.782860492258586 -1.461670557962071 1 0 0
2508 3 -7.183330060453891 -9.663417934208729 -1.2314417641962896 0 1 0
785 2 -8.90640041612568 -9.605138942868663 -2.687864170208014 0 1 0
939 2 -6.338127310081793 -7.847942946503933 -1.6117822906546704 0 1 0
1907 2 -2.856918489984657 -8.670816989364342 -0.27906504164449036 0 0 0
2163 3 -2.108652258617201 -9.482560071707923 -2.1416159748780355 0 0 0
1278 2 -18.417162814092357 -19.563662103291072 2.8022740786160654 1 0 0
1635 2 -17.834575902973548 -16.846940224177025 1.0800777962134869 1 1 0
1184 2 -14.985262037041567 -19.38695069495621 1.7527589606884437 1 0 0
894 2 -11.73822556790528 -17.628369535799923 1.125282702441863 1 1 0
1122 2 -8.061463961049808 -18.17114815645289 2.2412054871853226 0 0 0
1390 2 -4.828395333865832 -19.938838003061072 1.5217175651740522 0 0 0
627 2 -1.9121921134220758 -18.30877398832981 0.0040200013178907 0 1 0
2557 3 -16.561194040716874 -14.91746019668271 1.3725431522211513 1 1 0
866 2 -14.73190216727613 -15.729176165236362 1.2250544925158624 0 1 0
242 1 -10.39001380781825 -15.68837340195887 0.6807446578065995 0 0 0
2175 3 -8.221966391312954 -14.256702741157664 2.947939777209982 0 0 0
857 2 -7.835190933026882 -14.978697224529164 0.9660975732943891 0 0 0
1787 2 -4.43754846413261 -16.750382489476642 1.3470925233692312 0 1 0
310 1 -5.363403032511698 -14.943070165104352 0.1441622423534431 0 0 1
2299 3 -2.833186667467842 -16.438168405558052 2.8462879882355034 0 1 0
836 2 -1.5227851809788235 -15.148950334923539 1.6508414363567128 0 0 0
2016 2 -18.32687137212985 -10.666214343162238 1.1140062600435958 1 1 0
2493 3 -18.366224804495342 -10.173416681830963 3.2199087421188146 1 1 0
501 2 -10.615001786717931 -11.560291435386626 0.3959412736487093 1 1 0
1235 2 -7.50661637978803 -12.021231795855869 2.7449476666309347 0 1 0
1534 2 -4.463737001162266 -13.238771653878068 1.4895390078034632 0 1 0
2324 3 -5.249584254520014 -11.921864684730727 3.1137536288155236 0 1 0
510 2 -18.773549247581666 -7.2616056949079555 0.20402650414223633 1 1 0
1785 2 -15.577640748404328 -7.806327468348719 0.2485274511663768 0 0 0
346 1 -11.247197031925234 -8.28869632186624 0.18044457691701105 1 0 0
1894 2 -12.96099133040042 -9.005898898895937 1.720855303006876 0 0 0
2120 2 -8.02578278400775 -9.301020974846214 0.8201781339305141 0 1 0
1039 2 -4.767128818905759 -10.059175396900251 2.3691471573802625 0 1 0
225 1 -6.480928614253161 -7.565269873340162 1.5731854107856111 1 1 1
1711 2 -4.580122317582483 -6.748004067832405 2.528243575928678 0 0 0
176 1 -0.1101160069630952 -8.544513622636263 0.4601632723597535 0 1 0
1012 2 -18.703688532806794 -18.533807816308382 6.46122814685121 1 0 0
421 1 -19.882388778015592 -19.37881129165834 4.669824762770987 0 0 1
2333 3 -16.417776533716513 -19.09927122994127 3.3865244917010853 1 0 0
1928 2 -16.157137343324937 -17.35858351067437 4.638470729320475 1 1 0
193 1 -15.76086975700132 -18.815663282371638 6.35341782651458 0 0 0
1566 2 -12.03631497919856 -19.92146777306044 3.3785472828406196 0 0 0
1832 2 -9.639569795178316 -17.77087669323759 5.314389804711655 0 0 0
2243 3 -7.930583515943545 -18.579138287901582 4.34164988440056 0 0 0
764 2 -5.997872990551182 -18.368008832740408 5.04451863657152 0 0 0
1865 2 -2.014664428405779 -18.355144321901047 3.3831430586805356 0 0 0
125 1 -2.9781750885261276 -18.06835060102219 5.7066967004000455 1 0 0
2245 3 -19.771592218686735 -16.660964714904214 6.343222357462593 1 0 0
1692 2 -18.682560311102137 -14.812709027061528 6.578320847783286 1 1 0
1377 2 -16.65637768619768 -13.990255068014102 3.4622855043387744 1 1 0
213 1 -14.398307920667845 -14.901263786934848 3.569098911469029 0 0 0
1721 2 -10.330050082809526 -14.326310273500628 3.4563226742783075 0 0 0
1031 2 -12.87345009247679 -16.469558889736863 4.2426483045502446 0 1 0
2356 3 -12.769387043279824 -15.980653664115902 6.27712395598013 0 1 0
2038 2 -6.891406538234041 -15.030461471798532 4.384090935684783 0 0 0
1710 2 -3.509426437408031 -15.550658364719238 4.634502155192582 0 1 0
1384 2 -19.18285273538419 -11.802206346081977 4.325403534210775 1 1 0
990 2 -13.019565058607116 -12.713649232892598 3.68288576892941 0 1 0
2574 3 -11.738193983600608 -11.161928718340228 4.486210813436167 0 0 0
1800 2 -10.208378020793173 -10.182733264406059 3.4035361172912797 0 1 0
1010 2 -11.066514724356697 -11.613207733573836 6.464409186509314 0 1 0
1310 2 -4.48766218252359 -12.570766026753653 4.970106769676904 0 1 0
986 2 -1.3172392020004717 -12.576097124746234 3.911938317587798 0 0 0
107 1 -2.706812943631154 -11.015371571093903 5.263034912595758 0 0 0
820 2 -19.488593606853517 -8.53770993963621 3.675942409970928 1 1 0
1866 2 -16.53836905063513 -9.646759421904044 4.011901717468057 1 0 0
2147 2 -13.316356997034028 -9.337635504818811 4.983198195294122 1 0 0
2592 3 -12.5217249255611 -8.033925259709061 6.572693346748847 1 0 0
1447 2 -10.905435969380438 -6.959597316563272 5.538458795925094 1 0 0
1893 2 -7.262498794621104 -8.066587644618739 3.881799357062244 0 1 0
2374 3 -5.272644819536277 -7.358349144914207 4.502312684450245 0 1 0
1339 2 -4.286827525994007 -8.534977352119116 6.149936410872299 0 0 0
1002 2 -0.95185347210039 -9.290398120703124 3.834953755765821 0 0 0
253 1 -10.619622346628379 -19.293201489433056 6.944856813500406 0 0 -1
1843 2 -13.185428041668953 -17.846850194756502 7.3554853042016335 0 1 0
1094 2 -8.751921485407902 -20.109064092606115 8.273517445569873 0 0 0
1552 2 -5.026198322484996 -17.715879031019586 7.889505556622364 0 0 0
1835 2 -0.9723308781838381 -17.718098594548504 7.355815518292043 0 0 0
2100 2 -14.323537971914348 -14.436636049933915 6.791864685502741 0 0 0
2092 2 -16.173969919634615 -16.725261242484535 9.21919318512786 0 0 0
66 1 -16.706560908335693 -14.485482831360015 8.498760528636383 1 1 -1
1479 2 -10.991546797006162 -14.994845340902032 6.977675073972944 0 1 0
118 1 -10.730419605848374 -14.453926711476676 9.37301625908587 0 1 0
1772 2 -12.947655820763444 -15.446914537279083 9.935945494096655 0 1 0
1365 2 -8.204014750620152 -16.117865162193983 8.270345384017311 0 0 0
2289 3 -6.146896434805705 -15.927856286829536 8.4909582073875 0 0 0
720 2 -5.660139085142758 -14.144502840955424 7.439504969159997 0 0 0
2406 3 -1.2666000886251052 -16.41766098206407 8.998525765693664 0 0 0
598 2 -2.579964654045555 -14.671919967908005 8.511441677348913 0 0 0
123 1 -20.096528681812305 -10.10221536084828 10.051997505086048 0 0 0
691 2 -18.11379446234187 -11.336953510494908 9.451643812879764 1 0 0
2344 3 -16.894237890423096 -10.168687617379685 7.945203945744226 1 0 0
1678 2 -15.752407434752152 -11.72583038367837 6.770024657296186 1 0 0
320 1 -13.5003008487061 -12.244448034512995 7.271433363737808 1 1 0
1614 2 -12.7058103036278 -11.91624826283234 9.72307782510826 0 1 0
1709 2 -9.089786368349174 -12.449646347193713 9.234213054697 0 0 0
292 1 -5.903360600655794 -12.44255379848826 9.273420592358647 0 0 0
1499 2 -2.232881251024912 -10.984164015816443 7.732975287562517 0 1 0
2208 3 -0.2291980651745081 -11.344539521370413 8.132582881419857 0 1 0
1505 2 -18.190831492123053 -8.82784856743016 6.953847523294204 1 1 0
1090 2 -15.677087280920194 -9.070779533855259 9.653766974227377 1 1 0
1955 2 -14.073534589967608 -6.758108335333842 7.426962490135824 0 0 0
373 1 -13.42620925366533 -7.260164812711958 9.594025510350242 1 0 0
1764 2 -11.704991820389898 -8.601575666805788 8.49212342873613 1 0 0
1979 2 -7.907651644663832 -7.454263008941585 7.868798155285475 0 0 0
1937 2 -5.757567204265051 -9.971191639170142 8.815472380037017 0 0 0
2429 3 -6.700192874825623 -8.072301280130624 9.420306884986184 0 0 0
838 2 -19.44658139766336 -17.69199908323449 10.232960937116 0 0 0
693 2 -17.76241436626724 -20.127609627267258 12.89802142732912 1 1 0
444 2 -14.801245992557481 -19.21286585951531 11.659510595587314 1 1 0
904 2 -10.549013221074349 -17.91040930143404 10.53214324820674 0 0 0
335 1 -11.572466390033576 -19.97830807894096 11.785313180231382 0 1 -1
2515 3 -8.945669870970901 -19.441714694662398 10.306187205881923 0 0 0
439 2 -7.161500227619786 -18.57674239587236 11.04323301896605 0 0 0
255 1 -4.72520473291459 -18.34735212640042 10.261540842437842 0 0 -1
1146 2 -2.495670375891054 -17.302478200110997 10.613165006422632 0 0 0
1250 2 -0.45351268146970825 -18.964303491285268 12.655282992139176 0 1 0
1417 2 -18.55848553431552 -14.43869495649277 10.19548420294173 0 0 0
1982 2 -17.35656195417242 -16.349088029629833 12.709315683966528 0 0 0
2392 3 -17.820862012871093 -16.486925834434416 10.629168790959971 0 0 0
199 1 -19.217559522576213 -15.215053248764873 13.387263230116712 0 0 0
2297 3 -13.607928848586619 -13.600269971928373 10.846991616667855 0 1 0
1170 2 -12.497788314360163 -13.652372275585877 12.66019830831038 0 1 0
2017 2 -9.587595486905192 -14.626144267385051 11.707253779751916 0 0 0
1003 2 -5.673762079207592 -15.482734055805516 10.624812768405018 0 0 0
396 1 -3.381008609808829 -14.672709515815896 10.989507225375656 0 1 1
2098 2 -3.536569173898963 -15.101961944098539 13.364612206657497 1 1 0
896 2 -18.48759254001077 -12.670927598080922 13.227406592187664 1 1 0
286 1 -16.234984573291147 -10.514082522979232 11.353128482153796 1 0 0
445 2 -15.66792344268566 -13.341821688454885 10.775916785269727 0 1 0
1794 2 -10.480823873849532 -10.926897317672207 12.170843546287118 0 1 0
2577 3 -9.118522679788976 -12.594830829823318 11.427721569525172 0 0 0
833 2 -7.034750485754366 -12.21698645357884 11.978598846641889 0 0 0
848 2 -4.062072226082466 -12.466892041067297 10.864786866522195 0 0 0
2313 3 -3.352151722355623 -10.658683681155136 11.841989639057662 0 0 0
1093 2 -1.5829755421501397 -11.258653788808035 13.164739370140605 0 0 0
1178 2 -18.538383841313486 -9.370591214648602 12.226924563597112 1 1 0
2393 3 -19.323866361791097 -7.58345146928258 13.350456522857286 1 1 0
1746 2 -12.808259109735552 -8.070227061129707 12.144247633129893 0 0 0
1086 2 -8.161748544865551 -8.572247495565234 11.112973154004367 0 0 0
1220 2 -4.750947204244105 -9.75914657950875 13.294275183825599 0 1 0
18 1 -3.3680728415128782 -7.630931405550337 12.64381314127087 0 0 0
1754 2 -2.9527437906260117 -9.10824423168582 10.42425906826926 0 0 0
1516 2 -15.491819018794448 -18.861501456083314 15.1313547805288 1 1 0
2012 2 -12.428172252653003 -17.10290433984709 13.807569501009157 0 0 -1
2539 3 -10.800485217057672 -17.671814681579264 15.061445416723288 0 1 0
1727 2 -11.51354276676932 -18.82473518029006 16.705676332291585 0 1 0
1403 2 -9.32519961982727 -18.473466048926426 13.740876476343752 0 1 0
103 1 -7.0105696779974425 -18.934554009692864 13.491011936639142 0 1 -1
849 2 -4.6102180139475175 -18.5178684967237 13.92550649680544 0 1 0
1590 2 -0.8196811787956656 -16.7919484932796 15.076821811189207 0 0 0
1903 2 -17.746180452915134 -16.104560382507326 16.08133208485721 0 0 0
1173 2 -15.710241762963514 -14.401243327835912 14.409446966536095 1 1 0
207 1 -12.707155350534904 -15.083049154206114 15.034118768725856 0 0 0
1072 2 -9.98016257636691 -15.970188634533217 16.215201447132003 1 0 0
1856 2 -6.71140074463887 -16.12027679012813 14.437379754783587 1 1 0
166 1 -6.992519383839102 -13.81652594215823 14.824313733609626 -1 1 1
2193 3 -4.586085423096744 -16.488337502933362 14.533235861084783 0 1 0
2075 2 -4.011712198358501 -15.938712900028824 16.59822360385728 0 1 -1
2435 3 -0.17634356661902198 -15.202377101279167 16.24088762907075 0 0 0
1696 2 -16.86938955783721 -11.981147009220168 16.366453720894548 1 1 0
461 2 -15.236964518354398 -11.155543173560899 13.467327043879022 1 1 -1
2416 3 -16.705874665742606 -12.526512651798445 14.354598202059782 1 1 0
795 2 -12.569807280834443 -13.01749501597945 16.01236807344994 1 0 -1
2384 3 -9.750141518989551 -10.823665755313877 14.245879394296727 0 1 0
799 2 -9.277408801143466 -12.830190105340979 14.819380810490856 0 1 0
443 2 -5.047150436667583 -12.411196578129541 15.003054584891277 0 0 -1
1048 2 -0.5370409080220224 -13.020273963340495 16.008568185722968 0 0 0
33 1 -0.8047423781706364 -10.195416789290599 14.821715989205927 1 1 0
2004 2 -2.3904492969184137 -10.499575802397642 16.73618774214693 0 0 0
865 2 -18.962486515852373 -8.004438294944713 15.483391784685157 1 0 0
249 1 -14.648101349305191 -7.583289146924362 16.48927919330128 1 0 0
1544 2 -15.418500293218651 -7.172708453858204 14.327305641246252 0 0 0
2041 2 -11.42609727105379 -9.938758839980078 15.518750711890894 0 1 0
531 2 -7.832830215673061 -9.883664240517435 14.334054701699317 0 1 0
775 2 -4.149823447324004 -7.456078813986672 15.872467022408479 0 0 0
2570 3 -2.346137540352487 -8.228396644750775 16.38246660558844 0 0 0
889 2 -1.0372473859036107 -8.080113994075926 14.622294273113628 0 0 0
1731 2 -18.386841382144762 -19.67014733639802 17.065746534952766 1 1 0
1935 2 -16.271837461639123 -17.185339924261424 19.009183696601937 1 0 0
321 1 -11.196908105435147 -17.849063203565418 18.65420182155012 1 1 0
1026 2 -10.776519908606264 -20.046280958857057 20.005203805685234 1 1 -1
1585 2 -7.387038678502539 -18.481252668066247 16.84445173655721 1 1 -1
2140 2 -3.6896283996586865 -18.8574457600357 19.934944299697726 0 1 0
146 1 -5.411450896068964 -18.035626153745117 18.154178819315373 0 1 -1
1741 2 -0.3856260749630399 -18.85219862835855 19.25843352768376 0 0 0
2319 3 -19.639005353943627 -15.41140652684967 16.94449202278928 0 0 0
824 2 -18.93400093801008 -14.151983661707071 18.607540123486952 0 0 0
407 1 -16.837263452973023 -14.48488714732832 17.465549811373442 0 0 0
2129 2 -14.937910021612996 -13.702756284839055 19.181848400666244 1 0 -1
616 2 -13.75052594061863 -15.98159129829877 17.063909906029576 0 0 0
2506 3 -13.266553582702379 -14.055524238840988 17.79272509027437 1 0 -1
1183 2 -11.457418291893491 -14.138884942797137 19.0741046524903 1 0 -1
1332 2 -9.33218053154037 -16.63757721614134 19.912825932275346 1 1 -1
608 2 -6.96422412084847 -13.532397379078697 17.486917598230402 0 1 0
726 2 -5.926339360416641 -16.21867686226464 19.999322041657358 1 1 -1
1474 2 -0.6420280436694007 -15.29761264173124 18.367215062538154 0 0 0
1051 2 -19.477841841570182 -10.563385796130117 17.755674219432702 0 0 0
674 2 -16.200279722281028 -10.899646667982756 19.745688456298446 1 0 0
2423 3 -10.208371671049106 -10.10418076888788 19.65359665494438 0 0 -1
13 1 -6.782978788888386 -11.652535546400422 19.452803337324557 0 0 -1
1387 2 -9.378879772747055 -11.101281066798588 17.879807227292666 0 0 -1
706 2 -3.726467248702657 -13.089662757630348 18.4678326655668 0 0 -1
2123 2 -6.0007592107859695 -10.353942733763423 17.589490342935306 0 0 -1
2390 3 -5.166581512366086 -12.324638173035002 17.127690024722952 0 0 -1
412 1 -1.3839252322864322 -12.576558548751061 18.449236110789773 0 1 0
1164 2 -13.689310302349542 -9.942830331573548 17.41581088371652 1 1 0
2379 3 -15.019678964761205 -9.321311234154221 18.92770297889716 1 0 0
642 2 -16.48583690209556 -8.003378718842345 17.9415734266896 1 0 0
154 1 -10.403273498692178 -8.371493352351036 16.806718049342145 1 1 0