BEGIN_CFG
 Size
    96
 Supercell
        13.915550      0.000000      0.000000
         0.000000     13.118209      0.000000
        -0.635499      0.000000     12.834844
 AtomData:  id type       cartes_x      cartes_y      cartes_z           fx          fy          fz
             1    0       4.182310      1.388900      3.222810     0.232242   -0.065683   -0.347061
             2    0      10.797520      1.119590      9.567090     0.217948   -0.057145    0.525935
             3    0       1.025700     10.164410     10.657190    -0.253522   -0.090634   -0.399251
             4    0       6.781180     12.714990      5.349070    -0.717221   -0.172382   -0.925167
             5    0       1.559590      3.347830      7.665110    -0.284533   -0.103605   -0.696186
             6    0       9.890690      5.219890     11.358040     0.006219   -0.501349    0.130355
             7    0       9.105190     12.257330     11.646080     0.011535    0.419269    0.288100
             8    0      10.095590      2.268050      1.490080     1.028276   -0.823529   -0.414689
             9    0       5.388260      5.566360      1.978500     2.315857    0.132410    0.178372
            10    0      12.918670      5.949330      0.406850     0.152482   -0.435113   -0.027402
            11    0       2.220100      2.390200     11.016300     0.494925   -0.765551    0.752354
            12    0       9.272720      6.507740      1.548600     0.395008   -0.210172    0.983055
            13    0       4.725540      1.698990      6.562370    -0.048123   -0.021710   -0.383302
            14    0       8.829340      2.978380      9.359260     0.131577    0.198040    0.078678
            15    0      13.355360      8.742670      2.276110     0.201844   -0.158480    0.292015
            16    0      10.722320      5.260780      8.271750     0.600312    0.181290   -0.000654
            17    1      -0.347030      7.967360      9.528530     0.030048    0.725793    1.155709
            18    1       5.458810     11.812580     10.253720     0.879605    1.123123   -0.304165
            19    1       3.435890      9.505440      9.047840    -1.031152   -1.577991   -1.842924
            20    1       1.434760      6.892330      5.112410     0.083872    0.661410    0.184891
            21    1       8.520410      6.379490      9.762350     0.374011    0.979124    1.290909
            22    1      11.056750      3.652250      9.865640    -0.244173    0.340574    0.224651
            23    1       1.020160      3.049000      2.748320     1.231063    0.366961   -1.532355
            24    1       5.447360      8.329370      2.246860    -0.311937    0.515519   -0.770703
            25    1       4.817860      1.899020     10.378490    -0.122819   -0.049014    0.771314
            26    1      10.067320      7.512010     12.832370     0.706786    0.607534    0.070760
            27    1      12.615580      8.484480      5.613300    -0.051771   -1.232893    0.416384
            28    1       5.181480      3.128100      1.161690     0.285784    0.663441   -0.366503
            29    1       5.188590      0.087080      0.858550     0.505716    0.255442   -0.373328
            30    1       2.363200     12.682330      1.966070    -1.664924    1.620995   -0.238338
            31    1       6.585230      9.405780     11.640500    -0.011779   -0.340406   -0.358185
            32    1       4.370630      3.748760      7.993050    -2.112212   -0.082913   -1.527812
            33    1      10.094500     10.305010     10.844670     0.844040   -1.223090    0.384304
            34    1       2.327930      3.989220      5.725070    -0.656898    0.597966   -1.424160
            35    1       6.694690      5.519830      3.716330     0.628295    0.749837   -0.098743
            36    1      11.497410      0.902170      5.554950    -0.609709   -0.569954   -1.608247
            37    1       4.404260      7.919200      5.012550     0.533539   -0.157837    0.646627
            38    1       1.282780      5.926960     11.912320    -1.407461   -0.027598   -0.987958
            39    1       7.991380      9.577520      4.550700    -0.821844   -1.255272   -0.057900
            40    1       1.543040      3.788690      9.667550    -0.602848   -0.189986    0.705961
            41    1      12.537510      4.087470      4.317860     0.457005    0.353594    0.904527
            42    1       1.100110      1.222840      4.906880     0.343256   -1.189054   -0.423118
            43    1      13.322350     10.579850      3.674420    -0.198422    1.653808   -2.262599
            44    1      10.184590      7.730230      3.569240    -0.098986   -0.202482   -0.087939
            45    1      12.595760      0.938960      2.108000     1.206882   -0.160554   -0.100900
            46    1       7.182020      7.120830      7.001450    -0.077980    1.492654   -1.478909
            47    1       6.554170      0.411540      7.561470    -0.564831    0.717245   -0.017918
            48    1       9.021990     12.245730      9.224300     0.006472    1.477687   -0.989377
            49    1       4.282630      0.013940      4.900020     0.178434   -0.374778    0.580102
            50    1      10.306160      6.164760      6.287240     0.301388   -1.057821    0.120081
            51    1       9.669550      2.180330      7.396080     0.226269   -1.978266    0.773650
            52    1       5.616350      2.958020      4.588920    -1.160968   -0.407442    0.568538
            53    1       2.226510      6.440320      8.363300     4.225223    1.505135   -2.174143
            54    1       8.349530      0.595510      0.526770    -0.363521   -0.541740   -0.812329
            55    1      13.421500      5.547140      7.786150    -1.174296   -1.310401   -0.000271
            56    1       2.761040     11.216730     12.020860    -0.545062   -0.628252   -0.176098
            57    1       7.337590      6.469100      0.525560    -0.178883    0.293232   -2.204956
            58    1       2.361130      9.290340      2.614580    -0.895385    0.090473   -0.441329
            59    1       8.539990      3.679680      1.691410    -1.026244    0.759314   -0.668413
            60    1       7.258580      3.637780      7.673530     0.863613    0.678371    0.022533
            61    1       6.050710     10.712980      6.754540    -0.659850   -0.587679    0.310795
            62    1       0.441530      5.978090      2.253490    -0.705316    0.905704   -0.288639
            63    1      10.242030     11.152920      1.032610     0.341875   -0.756165    0.633571
            64    1      13.493690      9.766260      0.141380     0.566555   -0.259630    0.296707
            65    1       7.444590      3.247270     11.176260    -0.104120    0.245868   -0.239399
            66    1      11.295060      4.392810      0.670950     0.358174    0.443947   -0.350675
            67    1      -0.267950      1.470700      7.366330    -0.585745    2.799718    1.625373
            68    1       2.307530     12.700660      8.338010     7.229698    0.345053   -0.435772
            69    1       9.116580     11.853010      6.018120     0.966034   -1.452466   -2.681404
            70    1       9.952290      9.190310      7.414350     0.304104    0.835833    1.005390
            71    1       7.704930      1.043250      3.263350    -0.241579    0.058960    1.223722
            72    1       3.574940      7.912880     12.185740     0.180757    0.625593   -1.824744
            73    1       9.105140      3.587460      4.825300     1.581038    0.232921    0.983868
            74    1      10.162990      1.147040     12.191810     1.268889    0.013893   -1.481467
            75    1       0.040320     12.651460      9.674770    -3.412490   -0.591105    5.145250
            76    1       0.194170      1.821200     12.106290     0.220180   -0.251545    1.361333
            77    1       3.500720      5.689840      1.648420    -2.622477    1.210139   -0.031379
            78    1       2.142580      9.575100      6.231920    -0.025704    0.787428   -0.255280
            79    1      13.304340     11.185260      6.810420    -0.575406   -0.059570   -0.218421
            80    1       5.665310      5.756660      9.830950    -1.407956    1.606295    0.845902
            81    2       3.437700      8.046670      1.294850     2.094044   -1.430841    1.859636
            82    2       0.838020      5.106430      4.266930     0.070368   -1.228038   -0.053116
            83    2       0.829080      6.013550      9.639330    -2.693517    0.023842    1.916291
            84    2       5.960470      3.570850      9.301430     0.203312   -0.674970    1.992718
            85    2       8.635620      0.158280      7.228590     0.431404    2.773290    3.667321
            86    2      10.752770      9.655320     12.807810    -1.612346    0.798555   -1.028922
            87    2       6.716600      7.369170     11.100460     1.079263   -2.560998    0.604871
            88    2       9.315940      7.987050      5.896890    -0.668340   -0.384761   -1.553493
            89    2       6.599800      1.705660      0.341610    -1.094912   -0.886634    0.109777
            90    2       4.193360     10.262920     10.693170     0.425187    1.077704    2.493147
            91    2       0.468670      9.437170      4.989000     0.317306   -0.831418    2.265306
            92    2      13.112040      2.132450      5.172120     0.252539   -1.013225   -0.294727
            93    2       0.497900     12.653880      7.755680    -2.722633   -0.826163   -3.322421
            94    2       7.500710      3.429720      3.605830    -0.914697   -0.653281   -0.210034
            95    2       0.880860      1.237410      1.462760    -0.835100   -0.892863   -0.028377
            96    2       6.134900      8.878580      5.681300     0.529441   -0.640530    0.430817
 Energy
       -192.405209210000
 PlusStress:  xx          yy          zz          yz          xz          xy
        63.38781    33.38937    49.61784     8.26519    -1.38427     0.84407
 Feature   EFS_by	VASP
END_CFG
BEGIN_CFG
 Size
    96
 Supercell
        13.915550      0.000000      0.000000
         0.000000     13.118209      0.000000
        -0.635499      0.000000     12.834844
 AtomData:  id type       cartes_x      cartes_y      cartes_z           fx          fy          fz
             1    0      12.482250      4.638150      3.596580     0.024597    0.183941    0.472858
             2    0      12.610200      3.436670      8.170870     0.163948    0.912707    0.238088
             3    0       1.642590      8.398130     12.655110    -0.884679   -1.114129   -0.250016
             4    0       9.089620      3.403110      3.729900    -0.225381   -0.001378    0.022840
             5    0      10.079480      0.655820      6.955410     0.332369   -0.020052    0.526478
             6    0       8.223900      0.015920      1.391520     0.349639   -0.261578    0.463476
             7    0       4.016210      2.005960      2.833190    -0.304563   -1.007238    0.894947
             8    0       9.041280      2.097750      9.892900     0.540799    0.149162   -0.337436
             9    0       5.847800      5.336120      0.674800    -0.432687   -1.480911   -0.678154
            10    0       4.086240      8.809550     10.751730     1.004948   -0.902898    0.683013
            11    0       3.031730     11.663040     11.544760    -0.316998    0.239778   -0.214384
            12    0      11.253700     11.348680      0.858300    -0.595094   -0.414067    0.274707
            13    0       8.828810      9.225600      5.879920    -0.829812   -0.164509    0.746833
            14    0       2.294280      2.018870      0.073900    -0.175865    0.673134   -0.371976
            15    0       2.438580     11.151460      2.021640     0.204049    0.158931   -0.096967
            16    0      11.815720     10.871110      5.873640     0.253907   -0.037641   -0.086644
            17    1      11.280930      9.762610      7.559070     0.276967   -0.352444    0.575881
            18    1       4.075350      1.785720     10.838520    -2.755897    1.734849   -1.133850
            19    1       0.047110      8.619910      7.782700     1.476544   -0.271733    0.197841
            20    1       3.812280      9.788800      0.054580     0.353537    0.422283    0.000586
            21    1       7.595730      5.496030     12.729440    -0.304907   -2.404731    1.385518
            22    1      11.169970     12.900060     12.286240    -0.002312    0.305882   -0.343587
            23    1       3.926770      5.874590      3.645730    -0.650291   -0.414414   -0.468818
            24    1       7.987680      8.028740     11.792540    -0.248779    0.866929    0.161196
            25    1       5.443360     11.906600     10.934440    -0.554438   -0.712178   -0.556523
            26    1      13.020490      7.228640      3.267860     0.998464   -1.600735    1.261565
            27    1       8.639660      5.830700      3.080290     0.882414   -1.758096    2.879328
            28    1       7.270340      2.183310     11.279810    -0.728407   -0.591014    0.636952
            29    1       2.784990     13.092820      0.512980    -0.080289   -0.668194    0.434711
            30    1       0.986300      3.524320      3.769300    -0.341523   -0.563096   -1.060708
            31    1       6.043870      7.957650      9.606120    -1.215771    0.742884   -0.701745
            32    1       6.930430      3.118840      7.622620    -0.964498    0.498231   -0.314310
            33    1      10.739710      8.479590      0.825460     0.393622   -0.393241    2.569725
            34    1       3.371270      3.217860      5.868550    -0.799224   -0.617621    0.413329
            35    1       6.389000      7.753790      4.821020    -0.596981    1.218843   -1.109950
            36    1      12.206980     12.677660      8.555520     1.325916    0.767124   -0.972342
            37    1       6.131580      4.299920      4.567340     1.042295   -0.553785   -0.134058
            38    1       1.380250      6.912450     10.450330     0.605629    2.369601    0.076522
            39    1       4.762440      0.541970      4.609010     0.086472    1.256908   -1.433339
            40    1      10.898360      3.560050     10.848840     1.056021   -0.123569    2.045224
            41    1       0.223240      1.742700      6.126820    -0.385519    1.115889    1.018038
            42    1       1.965730     12.971430      8.025650     0.631288   -0.602184   -0.162572
            43    1       1.792800     12.910730      4.359750    -0.106707   -0.113940   -0.717801
            44    1       7.499930      9.187090      1.785990     0.980399   -0.910298    0.435853
            45    1       1.627340      6.092470      5.427480    -0.683530    0.750036    1.603519
            46    1       7.696800     11.517960      6.149580    -0.931480   -0.026753   -0.428382
            47    1       8.567990      9.299650      8.378990     0.088049   -1.163955    0.039699
            48    1      10.739090      9.958100     10.941990     0.470210   -0.902175   -0.119870
            49    1       2.615900      9.206380      4.113060    -1.055066   -0.599986   -1.664410
            50    1       9.549820      1.765180      1.655440    -1.079626   -0.339631    0.238147
            51    1       9.103590     12.842730      9.395050    -0.185086   -0.233414    0.176733
            52    1       4.854100      3.240220      1.539250     0.266723    1.185776   -1.276414
            53    1      12.695530      5.003390      6.300150     1.059665   -0.837073   -0.277415
            54    1       6.113130      0.174080      1.090070    -0.535011    0.583719   -0.591465
            55    1      11.708840      6.617030      9.471090    -0.390209    0.746361   -0.320818
            56    1       0.572530     10.904830     10.398520     0.615239   -1.416166    0.130157
            57    1       8.565820      5.830610      9.287250    -0.659790   -0.731226    0.394408
            58    1       5.257580     10.831550      3.023010    -0.402569    2.259812   -0.545480
            59    1      11.480930     12.792250      4.899870     1.848714    0.455192    1.212586
            60    1      10.685310      2.669300      7.890940    -1.095853   -0.603254   -0.477849
            61    1       5.500010      0.145210      7.844720    -0.285014   -0.146080   -0.205473
            62    1       1.500110      6.912220      1.644510     0.436593   -0.950807    0.283390
            63    1      10.646100      9.100410      4.584080    -0.436908    0.637481   -0.060457
            64    1      12.822810     10.725460      2.169700     0.277747   -0.856314    0.587156
            65    1       4.551480      5.588370     11.078950     1.525123   -0.168880    0.592256
            66    1      12.374950      5.122320      1.218240    -0.515932   -0.249290   -0.168384
            67    1      -0.062680      2.092710      9.911500    -0.113676   -0.333393    0.366303
            68    1       1.255310      4.370500      8.677640     0.536787    0.285099   -0.522482
            69    1       8.657900      1.404600      5.223750     0.183303    0.997275   -0.726826
            70    1       9.898060      6.792350      6.303390    -0.235842   -0.105313    0.721476
            71    1       9.218190     11.875810      3.370850    -0.410109    0.574751   -1.680236
            72    1       3.426920     10.019580      9.146800    -0.403340   -0.197754   -0.846967
            73    1      11.722890      2.565960      3.161070    -0.156647   -0.204178    1.935694
            74    1       7.962630     11.858720     12.472560     1.360426   -0.893943   -0.195376
            75    1      13.400130      1.584340      0.765470     0.892185    0.278783    0.498794
            76    1       0.432680      4.159460     12.392140     0.945985    0.115088   -0.325844
            77    1       5.243220      7.242560      1.342160    -0.055652    1.044988    0.423471
            78    1       4.162630     10.529770      5.776220     0.831796    1.735454    2.309215
            79    1      -0.057530     10.202420      5.113790     0.374091    0.508297    0.644685
            80    1       4.482090      5.872900      7.702680     0.473898   -1.260011   -1.192348
            81    2       5.491960      8.850790      2.992940     1.379867   -3.405915    0.734407
            82    2       1.853500      5.404310      3.388180     1.657485    2.059025   -1.324484
            83    2      10.371580      7.797930      8.235140    -0.786487    0.349294   -0.217041
            84    2       5.313330      4.142460      6.504650     0.822840    1.137348    1.844827
            85    2       9.795960     11.749740     11.197850    -1.454364    0.981450   -1.325607
            86    2      11.813650      8.756400      2.940360    -0.774525    2.380423   -3.389854
            87    2       6.933630      6.315290     10.652380    -0.563169    1.232633   -0.287803
            88    2       8.280260      7.000120      1.576580    -0.255591    4.014943   -4.664455
            89    2       5.493200      0.747020     11.714130     2.806226   -0.503739    1.649427
            90    2       1.501590      8.980750      9.273270    -1.700690    0.156062    1.000298
            91    2       1.940560     11.076420      5.361590     0.362684   -1.356118   -0.607526
            92    2       0.143550      0.901990      8.199220    -1.394147   -1.782146    0.046595
            93    2       1.352150      4.138220      6.614830    -1.104988    0.505528   -0.908523
            94    2      10.191690      0.834560      3.723790    -0.864683   -0.045404   -1.325085
            95    2      12.368880      3.485800     12.785490    -1.289356    0.346841   -1.412726
            96    2       5.639100     12.379880      5.915800     1.120502   -1.570143    2.386031
 Energy
       -196.334092020000
 PlusStress:  xx          yy          zz          yz          xz          xy
        26.19760    26.41337    23.33663    -1.82323     6.81511     0.62424
 Feature   EFS_by	VASP
END_CFG
BEGIN_CFG
 Size
    96
 Supercell
        11.044779      0.000000      0.000000
         0.000000     10.411929      0.000000
        -0.504396      0.000000     10.187022
 AtomData:  id type       cartes_x      cartes_y      cartes_z           fx          fy          fz
             1    0       0.821890      5.989910      5.288860     4.434922    3.403495   -0.897419
             2    0       8.666820      3.101820      0.376970     1.860984    2.016012   -5.225877
             3    0       9.492850      5.349240      9.627980     8.112500    0.880423   -7.045079
             4    0       7.096770      7.695700      7.223200    -0.917025   -0.142237   -1.366747
             5    0       4.842990      1.209410      6.926280    -1.669941    0.071366    6.830799
             6    0      10.459260      0.694790      0.053770     0.492540   -1.598613    1.184553
             7    0       7.078380      9.560370      1.019230    -0.422572    3.903912    1.751215
             8    0       8.090590      2.523710      7.599290     3.537769    2.641636   -0.455205
             9    0       5.237770      2.709630      0.756450     2.560844    4.285639   -2.474207
            10    0       6.626640      7.172010      2.344050     1.247538   -0.982729   -4.610208
            11    0       0.937600      2.967410      6.543790     1.680695    8.401113    0.274214
            12    0       4.051060     10.231050      2.575100    -0.095028    0.422795   -0.442651
            13    0      10.376010      3.454910      8.812280     0.333208    2.065385    1.063241
            14    0       6.128650      3.276550      5.279400     0.054930   -2.769869   -1.826254
            15    0       7.032130      6.666220      9.617630     1.684927   -0.581594    1.433030
            16    0      10.409800      9.183040      6.611030     0.518908   -0.416406   -0.280541
            17    1       8.877630      6.998600      6.337000    -2.558683    6.350897   -0.523319
            18    1       3.448600      8.741020      8.553280    -1.886275  -17.930475  -11.047650
            19    1       0.995170      8.141600      7.468680    -0.381161    9.891881  -11.789227
            20    1       1.999470      6.037620      1.933190   -29.468137  -14.840307    9.561521
            21    1       8.783880      5.226540      0.394020    -9.276003   -1.017923    3.417881
            22    1       9.307190      2.149570      9.562180    -0.252978    3.602715   -2.596885
            23    1       2.965520      3.671760      0.253910     8.371476  -11.635139   17.547186
            24    1       6.035770      5.084240      1.086380    -4.071093    0.066528   -1.702632
            25    1       5.812760      9.763650      8.115550   -21.950077   -9.524227   -5.688323
            26    1      10.184640      7.178640      1.439280     5.748966  -19.945046    3.893041
            27    1      10.578460      5.805210      4.041260    -2.013852    2.049794   -3.089501
            28    1       3.911280      1.360870      8.753410     1.232105   12.811099   -4.669215
            29    1       2.603580     10.253570      0.011820   -10.677968   -0.443985    7.840978
            30    1       1.200720      1.819030      0.640460    -7.170687    3.551881   15.948994
            31    1       5.965380      5.825620      8.444010    -2.590290   34.983245   -3.320584
            32    1       3.328600      2.319030      6.238750     1.070709   -3.274512    4.413753
            33    1       7.475390      7.852460      0.855950     0.097670   -1.036838    1.193482
            34    1       4.112300      3.084580      3.713680     9.947587   -6.406046  -12.708219
            35    1       3.718680      6.163700      3.829570   -14.301368  -19.690403  -24.835650
            36    1      10.555860      1.260680      2.902340    -2.748461   -9.144345   -6.435436
            37    1       3.924420      5.051630      6.062980     4.536209    6.524803    2.925539
            38    1      10.000170      7.197430      9.173670    -1.207722   -2.264008   -2.907928
            39    1       4.487210      8.926390      3.988430     0.941942    4.348940    1.336352
            40    1      10.334970      2.799120      7.141000    -8.362117   -2.236285   -3.258056
            41    1      10.419200      3.274180      4.460190    -6.314541   13.368409    5.298171
            42    1       1.831970      2.791940      2.748270    15.232684   -1.514621    0.897956
            43    1       2.132100      9.056900      2.607330     1.412653    2.823212  -13.290352
            44    1       8.226700      5.872830      2.729680    16.036884   17.862131    3.407173
            45    1      10.809350      4.469210      1.884810    -2.521297    2.515460   -2.754505
            46    1       6.371700      7.107870      3.963230     2.231466    3.358941    8.159103
            47    1       8.041580      8.206760      8.912910    -2.013600   -3.936899    0.626084
            48    1       8.824230      9.924840      7.580030    13.777144    1.810758   -8.015326
            49    1       2.652620      7.597650      5.389750    -1.930846   -5.689044    7.839699
            50    1       5.917020      4.784100      4.214930    -0.358277   -1.036333   -0.646396
            51    1       6.950560      1.167040      7.679180    -2.121421    7.378888   -3.901551
            52    1       4.251610      1.601100      1.596690    -3.603702   -1.925592    3.767791
            53    1      -0.234120      5.357660      6.555130    14.530131    0.535861    9.487742
            54    1       5.267840     10.090480      0.430260    12.372990   -2.927399   12.596332
            55    1       8.369500      4.569010      7.995260     0.688465    0.629444    1.223304
            56    1       1.877080      7.804600      0.304660     5.454017    7.177511   15.717280
            57    1       6.398300      2.939220      9.629630     0.392524   -6.597308    5.915592
            58    1       4.890930      7.650520      1.787600     4.323280    6.155550   -1.839707
            59    1       6.663290      0.348390      3.126420    -9.396422   -1.116019  -26.338768
            60    1       6.110380      3.360940      7.110420    -0.230992   -7.010673  -14.315267
            61    1       5.087140      7.626990      6.402460     5.479412    4.055402   11.959257
            62    1       0.340960      4.722730      9.830520    -8.091688    2.383129    3.039851
            63    1       8.996530      9.493470      2.655920    -8.894317    6.839886   13.466745
            64    1       0.073440      9.497450      0.626730    11.909279    7.521391   -6.951627
            65    1       3.854930      4.319670      8.210820     0.827678   -2.852740    3.380935
            66    1       8.028600      3.172770      1.863200    -0.499766   -8.160618    8.731393
            67    1       9.823810      0.181570      5.005350    -5.584291  -16.514568    2.772325
            68    1       1.100090      1.492900      5.935080     3.544463   -5.953457   -0.121393
            69    1       7.730170      9.553770      5.278420     3.436226  -25.111084   10.551906
            70    1       8.255730      4.384290      4.998710    -9.351675   -6.433554  -10.233090
            71    1       5.389570      1.051900      5.385580     0.031836   -1.938166   -7.361171
            72    1       1.794410      6.057120      8.094720     2.813042    2.881874  -12.324132
            73    1       7.928700      1.898700      5.380620     5.685979   11.437928    3.978221
            74    1       7.683050      0.477410     10.052260     0.115665    2.005309   12.146208
            75    1       0.115960      0.419980      8.394390    -7.401188   -9.361123   -8.768755
            76    1       1.415880      2.920130      8.308660     4.147902    6.510425   -6.671411
            77    1       3.671220      6.208250      0.005980     8.496393   -4.184447  -14.077463
            78    1       2.191100     10.061210      5.445060     6.470431    6.484846    6.005984
            79    1       0.283840      8.256060      4.889220   -16.265086   -4.839740    2.589522
            80    1       1.687360      4.218610      5.147890   -20.182292    7.174525    0.736650
            81    2       3.380830      6.667710      1.625650    18.842113   11.176099    6.928160
            82    2       2.079630      4.704180      9.187550     3.703422    2.580827   -6.495097
            83    2       9.187830      5.111350      6.172130    -4.865833    2.776406    6.113377
            84    2       3.226660      3.726160      4.979320     9.542594   -1.609476    3.463215
            85    2       7.376880     10.004720      8.520700     7.691881   -3.407441    6.387815
            86    2       9.841190      8.771070      1.422790    -8.301097    3.626036   -4.669850
            87    2       5.988870      4.297150      8.500020    -2.791370  -18.359323    9.690749
            88    2       7.188280      4.648650      2.632570   -14.891263  -13.043422    2.001819
            89    2       3.613670     10.165830      9.377730     1.358787    4.093090   -3.931906
            90    2       0.803510      7.393120      9.019860    -6.380709   -5.886820   -5.815720
            91    2       1.774270      8.813600      4.271810     4.661580   -0.105100   -1.416626
            92    2       0.151690      2.959920      2.875120    -5.973988    3.990869   -5.926308
            93    2      10.652760      1.607520      4.899480     4.888671    3.632568    1.291025
            94    2       7.244370      0.502860      4.603020    -3.803246   12.216836    6.923447
            95    2       1.154890      1.469280      9.266190    11.471386   -4.375674   -3.414307